! AWR Design Environment (8415) Sun Oct 15 14:44:39 2017
! Document = 'Single_Stage_Amp_Full_bias_at_6mA'
! nPorts: 2, nXvals: 200

# HZ S DB R 50
!Freq DBS11 AngS11 DBS21 AngS21 DBS12 AngS12 DBS22 AngS22 
1e+008 -0.39875121 -36.300467 -15.544356 -86.821145 -89.606235 -176.07115 -20.83902 153.46386 
2e+008 -1.4872591 -71.621119 -8.153993 -80.991639 -76.089803 -168.00164 -19.098713 125.54881 
3e+008 -3.1525202 -106.48646 -2.060668 -85.483525 -66.434171 -171.25352 -17.197156 94.842732 
4e+008 -5.0384091 -142.09428 2.424112 -93.730624 -59.409503 -178.52062 -15.397102 73.38729 
5e+008 -6.77909 171.57727 6.9441831 -102.83448 -52.873168 173.21552 -12.431033 55.490167 
6e+008 -6.7497073 124.79312 10.555624 -116.33654 -47.723486 160.50346 -10.458653 36.351924 
7e+008 -5.8818924 87.237859 12.975132 -130.49096 -43.858353 146.98904 -8.5729061 24.291203 
8e+008 -4.8815353 53.902704 15.198706 -148.38829 -40.541262 129.94171 -7.0786258 7.979767 
9e+008 -4.1280671 23.587683 16.881705 -168.17978 -37.767325 110.89022 -5.9652233 -8.4637142 
1e+009 -2.9009184 -3.3610679 18.700109 172.8963 -35.054207 92.736298 -4.5593167 -24.795664 
1.1e+009 -2.218764 -27.676854 19.939153 153.60655 -32.985048 74.196554 -3.609153 -41.574279 
1.2e+009 -1.7874491 -51.217029 20.934395 133.39564 -31.265672 54.905642 -2.7734848 -57.73861 
1.3e+009 -1.3483126 -73.208885 21.706575 113.28471 -29.780203 35.514708 -2.3170631 -74.523219 
1.4e+009 -1.149944 -95.411293 22.349993 93.254285 -28.524883 16.414285 -1.94732 -90.171709 
1.5e+009 -1.2689906 -115.91683 22.565692 73.740064 -27.723255 -2.2299361 -2.1741243 -105.60691 
1.6e+009 -1.6572086 -135.90007 22.480076 54.348762 -27.234743 -20.731238 -2.4423396 -121.03507 
1.7e+009 -2.0482525 -154.85138 22.400704 36.037166 -26.799736 -38.122834 -3.0092758 -135.14619 
1.8e+009 -2.5564804 -172.27206 22.136645 18.894982 -26.558978 -54.425018 -3.6096832 -147.95367 
1.9e+009 -3.1828151 170.49966 21.891879 2.0689452 -26.354136 -70.221055 -4.5209111 -160.36354 
2e+009 -3.8991261 153.88871 21.499854 -13.769896 -26.277449 -85.209896 -5.6180091 -172.10398 
2.1e+009 -4.530763 139.4062 20.958875 -28.403623 -26.376599 -98.953623 -6.9250899 177.5971 
2.2e+009 -5.2371737 123.3036 20.627951 -43.207474 -26.29398 -112.87747 -8.3396698 166.15704 
2.3e+009 -5.9422981 109.87481 20.152894 -56.820031 -26.365758 -125.66003 -9.7405893 155.92389 
2.4e+009 -6.9088613 95.048479 19.610363 -70.733682 -26.532679 -138.67368 -11.737264 144.25064 
2.5e+009 -7.7414382 81.642315 19.197916 -84.035825 -26.549947 -151.26583 -13.425697 132.53086 
2.6e+009 -8.5025212 66.885068 18.809663 -96.968456 -26.598435 -163.46846 -15.967302 117.90743 
2.7e+009 -9.1955068 51.789028 18.408871 -109.68021 -26.664662 -175.42021 -18.652219 96.659049 
2.8e+009 -9.8956926 40.312118 18.020257 -121.39413 -26.751406 173.70587 -20.809141 75.437764 
2.9e+009 -10.592772 24.874277 17.617556 -134.45462 -26.841726 161.45538 -21.816424 38.072286 
3e+009 -11.321076 12.575732 17.150455 -146.56656 -27.021181 150.25344 -20.081709 3.1547578 
3.1e+009 -11.974578 -2.1082433 16.593262 -158.96224 -27.301098 138.70776 -18.987712 -15.300089 
3.2e+009 -12.064085 -17.093948 16.295629 -170.6878 -27.312472 127.8422 -17.370627 -29.364547 
3.3e+009 -12.191593 -31.299093 15.948475 177.29694 -27.390693 116.62694 -15.994106 -38.395614 
3.4e+009 -12.193314 -43.336572 15.627059 165.81435 -27.449447 106.10435 -15.302665 -45.193569 
3.5e+009 -11.740652 -55.320029 15.198755 154.32626 -27.623828 95.506256 -14.326153 -51.508819 
3.6e+009 -11.062878 -67.929848 14.94245 142.23616 -27.624936 84.346159 -13.842171 -54.729795 
3.7e+009 -10.720098 -79.921445 14.65085 130.18176 -27.66706 73.191757 -13.633553 -56.912181 
3.8e+009 -9.9819882 -93.830858 14.279548 117.86104 -27.801473 61.82104 -13.244341 -58.145946 
3.9e+009 -9.3422424 -104.50142 13.989671 105.80376 -27.841037 50.733757 -13.106825 -57.657082 
4e+009 -8.0961892 -116.46093 13.698286 92.180105 -27.891417 37.960105 -12.628406 -55.867424 
4.1e+009 -7.0580562 -128.14238 13.390095 78.773829 -27.978515 25.443829 -12.040254 -53.322346 
4.2e+009 -6.1499762 -140.43573 13.061393 65.353181 -28.074281 12.913181 -11.464464 -50.620117 
4.3e+009 -5.0500317 -151.59251 12.650213 51.994287 -28.265047 0.47428663 -10.649427 -51.168501 
4.4e+009 -4.1101795 -163.41489 12.187617 38.067183 -28.499181 -12.552817 -9.6224186 -50.635334 
4.5e+009 -3.5255528 -175.85911 11.583936 24.485517 -28.88958 -25.234483 -8.6972595 -50.544402 
4.6e+009 -2.6811509 173.50132 11.050525 10.114022 -29.216498 -38.765978 -7.5206899 -52.284491 
4.7e+009 -2.0338681 162.00026 10.473838 -3.6374105 -29.592267 -51.60741 -6.6837386 -54.911519 
4.8e+009 -1.5811194 152.01805 9.7464423 -16.816466 -30.108338 -63.906466 -5.9530402 -57.955297 
4.9e+009 -1.2908726 141.54414 8.9709888 -29.818414 -30.688521 -76.048414 -5.2122333 -61.607107 
5e+009 -1.0964473 132.79915 8.203795 -42.062701 -31.248837 -87.382701 -4.566369 -65.230292 
5.1e+009 -0.85711048 123.5044 7.5532592 -54.819838 -31.703859 -99.247161 -4.1239622 -67.997119 
5.2e+009 -0.88376725 115.37626 6.6213199 -65.836176 -32.441254 -109.32618 -3.6507553 -72.171272 
5.3e+009 -0.86360907 107.46857 5.9371622 -75.837456 -32.93898 -118.5273 -3.3827925 -75.1289 
5.4e+009 -0.8055362 100.03882 5.1490703 -87.672597 -33.541407 -129.5226 -2.9971133 -78.763032 
5.5e+009 -0.99219096 92.325502 4.1897693 -97.527132 -34.317071 -138.50223 -2.7216555 -82.074293 
5.6e+009 -1.0456693 86.012056 3.4127954 -108.38887 -34.911372 -148.44887 -2.4557951 -84.570785 
5.7e+009 -1.0890579 79.730348 2.7036467 -118.79342 -35.443241 -157.99669 -2.2226397 -87.363908 
5.8e+009 -1.2793178 72.988657 1.6516344 -127.41388 -36.318786 -165.72388 -2.0976195 -90.371586 
5.9e+009 -1.3932885 67.77314 0.86416523 -136.27424 -36.93464 -173.70662 -1.8922115 -92.863392 
6e+009 -1.1748811 61.706527 0.087934726 -149.74024 -37.54043 173.73976 -1.667314 -94.824553 
6.1e+009 -1.2812854 55.973224 -0.545847 -159.03664 -38.00505 165.31742 -1.5341263 -96.949627 
6.2e+009 -1.4505671 50.040669 -1.6556733 -167.33312 -38.946671 157.92688 -1.3820462 -98.795389 
6.3e+009 -1.4654994 46.120107 -2.3183003 -176.08482 -39.440766 150.04896 -1.255321 -101.28369 
6.4e+009 -1.7379484 41.21766 -3.2997922 177.36479 -40.254869 144.40479 -1.1148083 -103.08024 
6.5e+009 -1.8818502 35.675996 -4.278765 170.00331 -41.067968 137.91818 -1.0337235 -105.21981 
6.6e+009 -1.949333 31.522368 -5.1970462 162.74271 -41.821646 131.56271 -0.94533678 -107.16525 
6.7e+009 -2.029108 27.040622 -6.254872 154.30553 -42.713414 123.96185 -0.80874716 -109.131 
6.8e+009 -2.0872167 22.497049 -7.2300942 147.41757 -43.523863 117.93757 -0.71418429 -110.93285 
6.9e+009 -2.1154658 18.721636 -8.3108404 139.99713 -44.447188 111.47292 -0.69120568 -112.70996 
7e+009 -2.1158109 15.145368 -9.6521657 132.87329 -45.632311 105.33329 -0.64860917 -115.00416 
7.1e+009 -2.012555 11.159183 -11.3354 125.94311 -47.147291 99.276719 -0.57851464 -116.96182 
7.2e+009 -1.9937328 7.4986958 -12.909749 119.925 -48.555037 94.154995 -0.5801678 -118.68446 
7.3e+009 -1.939449 2.970742 -14.560841 117.01192 -50.046278 92.08208 -0.56631447 -120.45989 
7.4e+009 -1.8460044 -0.5509408 -16.260202 114.63638 -51.587774 90.576377 -0.52740078 -122.24929 
7.5e+009 -1.7884267 -4.5903129 -18.138874 115.12908 -53.29937 92.00848 -0.53400005 -124.09304 
7.6e+009 -1.6935454 -8.4274116 -19.311894 117.61777 -54.30723 95.457771 -0.52095042 -125.79775 
7.7e+009 -1.590049 -12.085259 -20.213604 120.66701 -55.050169 99.199999 -0.55848484 -127.57825 
7.8e+009 -1.4970897 -16.264631 -21.099676 121.12071 -55.778676 100.38071 -0.55632433 -129.44628 
7.9e+009 -1.431264 -19.998672 -21.609479 125.90991 -56.153478 106.18353 -0.59131658 -131.41719 
8e+009 -1.4115137 -23.585953 -21.659642 124.76628 -56.068758 106.06628 -0.61438971 -133.06261 
8.1e+009 -1.3431459 -27.266108 -22.078967 122.96549 -56.299259 105.07393 -0.69402808 -135.13662 
8.2e+009 -1.2816236 -30.440592 -22.363431 119.10948 -56.398381 102.05948 -0.73952893 -136.83396 
8.3e+009 -1.2439129 -33.459998 -22.733563 117.3155 -56.613899 101.15581 -0.84139241 -139.07414 
8.4e+009 -1.2021363 -36.591807 -23.262688 115.11617 -56.989642 99.866171 -0.93703419 -140.97467 
8.5e+009 -1.1886513 -39.711113 -23.397396 115.17308 -56.971187 100.41264 -0.99932119 -143.18929 
8.6e+009 -1.1118661 -42.843006 -24.025333 112.78472 -57.446511 98.544722 -1.0936173 -145.57297 
8.7e+009 -1.1113556 -45.342979 -23.877328 109.77779 -57.143837 96.508293 -1.1492933 -148.0671 
8.8e+009 -1.0542699 -48.133256 -24.134939 107.62262 -57.248527 95.342622 -1.2833843 -150.67776 
8.9e+009 -0.99781763 -50.720562 -24.139492 106.70773 -57.107537 95.306213 -1.3876377 -152.59363 
9e+009 -0.97528228 -53.22511 -23.980044 102.90271 -56.803937 92.392708 -1.4423517 -154.77272 
9.1e+009 -0.94238188 -55.723394 -23.640443 98.530672 -56.313465 88.704245 -1.5732039 -158.24855 
9.2e+009 -0.838957 -58.375597 -23.968924 96.281131 -56.492739 87.161131 -1.6975202 -161.22759 
9.3e+009 -0.80081777 -60.624284 -23.730396 89.568099 -56.110274 81.232419 -1.8078536 -163.85972 
9.4e+009 -0.76386806 -62.894765 -23.349583 81.932961 -55.58743 74.402961 -2.0185218 -167.82612 
9.5e+009 -0.6891604 -65.326165 -22.549879 73.557461 -54.632455 66.859348 -2.133424 -172.10001 
9.6e+009 -0.57189271 -67.664307 -22.332204 64.158287 -54.261304 58.308287 -2.3174886 -176.49522 
9.7e+009 -0.58274704 -69.956723 -21.557433 48.370185 -53.35443 43.387592 -2.4815299 178.23273 
9.8e+009 -0.52055019 -72.396983 -21.736715 30.647898 -53.403749 26.547898 -2.8038433 172.7651 
9.9e+009 -0.45837579 -74.964823 -21.123172 14.373052 -52.582934 11.052842 -2.9922611 164.31955 
1e+010 -0.3754011 -77.579409 -22.632585 -6.5491222 -53.888666 -9.0691222 -3.4185809 151.62758 
1.01e+010 -0.32505086 -79.868836 -23.139238 -36.428201 -54.244234 -38.431573 -3.4180686 140.12523 
1.02e+010 -0.2552993 -82.305552 -23.745105 -54.876482 -54.700704 -56.336482 -3.506498 122.00074 
1.03e+010 -0.25640825 -84.809521 -25.060028 -81.47383 -55.863113 -82.300018 -4.1235187 96.673036 
1.04e+010 -0.15456959 -87.02535 -26.619278 -105.72422 -57.271419 -105.89422 -4.2054161 71.231602 
1.05e+010 -0.13144344 -89.678248 -27.313382 -142.67204 -57.818498 -142.24749 -4.4668401 39.045106 
1.06e+010 -0.075056306 -91.534906 -32.71109 169.53176 -63.070679 170.57176 -4.0334417 4.1905854 
1.07e+010 -0.045167918 -94.051491 -29.670926 132.23791 -59.8982 133.99543 -2.2035354 -19.121236 
1.08e+010 -0.022509967 -96.006272 -29.797072 91.604683 -59.894046 94.094683 -1.5540779 -39.472092 
1.09e+010 0.0085330399 -98.398355 -29.5983 86.199114 -59.537498 89.344987 -1.1239007 -52.588112 
1.1e+010 0.010949472 -100.51515 -30.79085 59.711314 -60.574256 63.531314 -0.78265461 -67.438386 
1.11e+010 0.036481225 -102.74454 -33.608473 46.515516 -63.266716 51.05898 -0.82575653 -77.560484 
1.12e+010 0.060331313 -105.233 -33.226708 24.1385 -62.76253 29.4185 -0.51241745 -85.754952 
1.13e+010 0.018510954 -107.64455 -34.502979 5.3164614 -63.873956 11.10278 -0.42506314 -92.579225 
1.14e+010 7.2133495e-005 -110.14483 -34.672071 -11.764139 -63.879909 -5.4441394 -0.36210522 -97.7987 
1.15e+010 0.024963781 -112.47488 -35.535545 -17.894476 -64.616334 -11.013291 -0.35527927 -101.80167 
1.16e+010 -0.034627263 -114.79579 -36.437317 -34.663175 -65.39231 -27.203175 -0.27574593 -105.21875 
1.17e+010 -0.093186335 -117.34297 -37.059326 -43.297043 -65.858967 -35.211516 -0.22499327 -108.17521 
1.18e+010 -0.17768473 -119.33871 -37.116072 -56.921063 -65.762799 -48.191063 -0.16688382 -110.56131 
1.19e+010 -0.33533828 -122.72148 -37.751253 -71.767827 -66.304336 -62.533321 -0.18322532 -112.59411 
1.2e+010 -0.37623727 -125.47682 -37.223597 -81.764935 -65.684238 -72.014935 -0.16586232 -114.60269 
1.21e+010 -0.44827539 -128.64783 -37.024086 -89.788074 -65.319814 -79.217677 -0.12023921 -116.67788 
1.22e+010 -0.63711677 -132.098 -37.312754 -105.04161 -65.447618 -93.631611 -0.13915588 -118.44129 
1.23e+010 -0.76918761 -135.0205 -37.433914 -114.00953 -65.408251 -102.13275 -0.12426002 -119.91085 
1.24e+010 -0.94567445 -138.79197 -37.927516 -127.58801 -65.743381 -115.21801 -0.13393932 -121.48552 
1.25e+010 -1.1363955 -141.98896 -37.627424 -139.21045 -65.329915 -126.31896 -0.12746439 -122.89299 
1.26e+010 -1.383826 -147.22403 -37.535385 -148.89175 -65.125006 -135.46175 -0.11469186 -124.08824 
1.27e+010 -1.5293013 -150.97909 -37.849157 -158.82491 -65.281146 -144.75945 -0.10459386 -125.27988 
1.28e+010 -1.8356187 -155.44462 -37.862698 -172.2978 -65.140423 -157.5878 -0.098360275 -126.34557 
1.29e+010 -2.1517844 -161.53635 -37.756565 178.60015 -64.932274 -166.31481 -0.088669154 -127.36552 
1.3e+010 -2.5512806 -167.72548 -37.644368 171.35042 -64.719259 -173.16958 -0.090667782 -128.3222 
1.31e+010 -3.0060238 -174.89324 -37.844975 160.05901 -64.760634 176.05706 -0.093054673 -129.20832 
1.32e+010 -3.4837041 176.52388 -37.502003 149.68299 -64.25986 166.22299 -0.079308864 -130.05782 
1.33e+010 -4.1135862 169.23231 -37.15138 137.37251 -63.760683 154.37282 -0.092036315 -130.76941 
1.34e+010 -4.4436106 158.50077 -37.167764 130.16357 -63.631605 147.64357 -0.090645558 -131.6161 
1.35e+010 -4.9647296 147.54967 -37.032466 121.11058 -63.396179 139.2031 -0.07826061 -132.49443 
1.36e+010 -5.6115932 131.06488 -37.309075 110.88952 -63.574907 129.60952 -0.06934171 -133.27078 
1.37e+010 -6.1148208 119.30804 -37.608508 101.18776 -63.705948 120.34575 -0.070227451 -134.01943 
1.38e+010 -6.1141423 101.75303 -37.650292 94.3408 -63.581272 113.9608 -0.069837213 -134.75124 
1.39e+010 -6.2564217 83.893333 -38.179885 87.987386 -64.021849 107.88091 -0.062630913 -135.47244 
1.4e+010 -5.7137366 68.494974 -38.112498 79.690107 -63.866388 99.870107 -0.054467778 -136.10988 
1.41e+010 -5.5414425 53.159646 -38.876633 73.439445 -64.50065 94.286269 -0.048850875 -136.74495 
1.42e+010 -4.6883246 39.138019 -39.103778 65.084816 -64.600359 86.614816 -0.041810756 -137.34286 
1.43e+010 -4.2096112 27.982842 -39.648028 59.742462 -65.02151 81.701983 -0.041848672 -137.92029 
1.44e+010 -3.4782735 19.484142 -40.068259 53.596217 -65.320429 76.006217 -0.038030997 -138.46857 
1.45e+010 -3.3126753 9.5602549 -40.670218 47.885408 -65.784285 70.862485 -0.034232952 -138.96399 
1.46e+010 -2.8919589 2.2676982 -41.306598 43.375891 -66.284778 66.935891 -0.028246727 -139.43608 
1.47e+010 -2.4899914 -4.9266966 -41.924533 37.684304 -66.772717 61.649867 -0.028882453 -139.89973 
1.48e+010 -2.3959343 -11.268567 -42.335695 31.371989 -67.055706 55.761989 -0.029688755 -140.35969 
1.49e+010 -2.2707442 -16.731583 -42.940543 25.656089 -67.529546 50.44073 -0.02462544 -140.75822 
1.5e+010 -2.1506475 -21.575853 -43.52911 18.89938 -67.988719 44.09938 -0.025539733 -141.18271 
1.51e+010 -2.1471268 -25.32866 -43.871423 14.830582 -68.209301 40.326597 -0.026015199 -141.59305 
1.52e+010 -2.2716496 -27.549434 -44.417804 10.156618 -68.635649 35.966618 -0.021764516 -141.95554 
1.53e+010 -2.0184882 -30.010378 -45.020729 5.5070066 -69.142751 31.739747 -0.019080272 -142.36 
1.54e+010 -1.7631319 -33.271651 -45.368488 1.6505311 -69.396418 28.320531 -0.022693733 -142.73315 
1.55e+010 -1.6123616 -34.615772 -46.35804 -4.7375594 -70.251985 22.382355 -0.019981142 -143.06039 
1.56e+010 -1.3266962 -38.053671 -46.905703 -10.632387 -70.667895 16.957613 -0.013159709 -143.38963 
1.57e+010 -1.1177007 -40.77889 -47.553356 -15.458536 -71.23279 12.379531 -0.010855475 -143.72617 
1.58e+010 -0.91093952 -43.47658 -48.415391 -20.775623 -72.013202 7.3243772 -0.011380216 -144.03143 
1.59e+010 -0.92711386 -45.615867 -49.596736 -25.485896 -73.077305 3.2806099 -0.013022701 -144.32803 
1.6e+010 -0.85550152 -48.399226 -50.564197 -31.241647 -73.930734 -1.7916473 -0.0098867076 -144.60116 
1.61e+010 -0.7799707 -50.222383 -51.879707 -38.380666 -75.139701 -8.3795617 -0.010521208 -144.86842 
1.62e+010 -0.71835581 -52.322371 -52.793292 -41.72177 -75.949449 -11.15177 -0.012590926 -145.14347 
1.63e+010 -0.70376985 -54.271537 -53.758973 -47.663219 -76.768014 -16.456222 -0.012213369 -145.4099 
1.64e+010 -0.66191142 -56.053826 -54.910329 -54.402489 -77.774328 -22.532489 -0.011747202 -145.6779 
1.65e+010 -0.62009377 -58.103382 -55.833029 -59.49312 -78.538701 -27.446111 -0.014727663 -145.96269 
1.66e+010 -0.58096667 -59.989053 -56.63196 -63.675004 -79.180627 -31.425004 -0.014311492 -146.24789 
1.67e+010 -0.5140776 -61.806993 -57.802336 -71.709848 -80.245837 -39.142682 -0.013812887 -146.52662 
1.68e+010 -0.48724989 -63.718737 -58.529065 -75.674568 -80.868259 -42.774568 -0.013388919 -146.8139 
1.69e+010 -0.45139788 -65.420421 -60.040732 -76.578588 -82.273936 -43.451975 -0.011472028 -147.09421 
1.7e+010 -0.43770028 -67.214606 -61.807481 -77.259484 -83.936397 -43.889484 -0.012033939 -147.3703 
1.71e+010 -0.40334463 -68.865311 -63.683686 -75.847148 -85.70469 -42.000746 -0.010334865 -147.63554 
1.72e+010 -0.39254588 -70.509805 -65.474211 -67.682403 -87.389562 -33.342403 -0.0086599335 -147.88541 
1.73e+010 -0.37267035 -71.753467 -66.923908 -55.590263 -88.756841 -20.698574 -0.0092245278 -148.12125 
1.74e+010 -0.3651635 -73.358743 -67.49779 -38.408903 -89.251194 -2.9489034 -0.0047319251 -148.35717 
1.75e+010 -0.38335815 -74.690354 -67.064875 -20.711029 -88.647391 15.262176 -0.0032549175 -148.59675 
1.76e+010 -0.39225792 -76.001513 -64.688405 -9.9364905 -86.101783 26.57351 -0.0033033822 -148.83836 
1.77e+010 -0.39323507 -76.991139 -61.250963 -9.3651888 -82.541341 27.362707 -0.0040306781 -149.07441 
1.78e+010 -0.39969483 -78.050126 -58.845516 -15.002903 -80.01473 21.967097 -0.0039231105 -149.33562 
1.79e+010 -0.37573594 -79.188224 -57.66018 -26.52411 -78.68865 10.726467 -0.0088866657 -149.58588 
1.8e+010 -0.33964057 -80.374597 -57.025189 -36.407791 -77.913874 1.1522093 -0.011728757 -149.81855 
1.81e+010 -0.31497493 -81.696533 -56.683301 -46.03968 -77.47468 -7.9690456 -0.014738666 -150.07721 
1.82e+010 -0.302713 -82.895784 -56.229407 -55.877128 -76.926303 -17.277128 -0.015583994 -150.31948 
1.83e+010 -0.28664964 -84.201016 -55.559682 -62.044253 -76.100582 -22.996844 -0.011398551 -150.56653 
1.84e+010 -0.2591098 -85.349202 -55.219578 -70.33524 -75.605595 -30.80524 -0.010068155 -150.80838 
1.85e+010 -0.21938447 -86.410508 -54.61287 -78.193078 -74.847292 -38.485348 -0.0086806125 -151.00796 
1.86e+010 -0.21230896 -87.462886 -53.967192 -83.950055 -74.049236 -44.040055 -0.002350267 -151.21151 
1.87e+010 -0.19921573 -88.431577 -52.338572 -92.043503 -72.291505 -51.929659 -0.0031496008 -151.45168 
1.88e+010 -0.21558324 -89.504803 -50.810188 -105.06566 -70.634858 -64.725659 -0.0039620862 -151.67649 
1.89e+010 -0.22283505 -90.364782 -49.53318 -117.95724 -69.208078 -77.482372 -0.0025338258 -151.89713 
1.9e+010 -0.27951574 -91.252984 -47.91332 -144.63994 -67.439705 -104.00994 -0.010340387 -152.1338 
1.91e+010 -0.28849052 -91.688755 -48.542071 -172.95363 -67.932969 -132.26209 -0.016162584 -152.35386 
1.92e+010 -0.2516999 -92.460811 -49.149654 161.34096 -68.40558 -157.87904 -0.016667466 -152.61132 
1.93e+010 -0.22851369 -93.252022 -51.663096 144.54855 -70.797978 -174.72547 -0.017483071 -152.87756 
1.94e+010 -0.19212548 -94.274669 -53.437144 130.25588 -72.450765 170.94588 -0.01602472 -153.15349 
1.95e+010 -0.19429864 -95.335386 -55.455349 121.52004 -74.371333 161.86382 -0.017636619 -153.445 
1.96e+010 -0.15665289 -96.321757 -57.180036 113.12994 -75.996252 153.14994 -0.01927983 -153.70131 
1.97e+010 -0.16679376 -97.228362 -58.366377 106.15656 -77.192657 146.48703 -0.013952283 -153.95873 
1.98e+010 -0.15805731 -98.10171 -59.83497 99.206067 -78.672135 139.84607 -0.015183062 -154.18028 
1.99e+010 -0.15240023 -98.996917 -60.326008 93.852251 -79.090301 135.25681 -0.015833984 -154.39791 
2e+010 -0.15247643 -99.770186 -62.101109 85.672365 -80.796188 127.85236 -0.009210704 -154.59541 

!Noise Parameters
!Freq  NFmin(dB)  Mag(GammaOpt)  Ang(GammaOpt)(deg)  rn(normalized)
1e+008 8.7870885 0.96491047 36.124415 91.789778
2e+008 7.6178504 0.87849933 69.827688 14.146891
3e+008 5.9166394 0.76939032 99.675579 2.8531292
4e+008 4.7439156 0.6636075 125.20185 0.75997476
5e+008 3.6318104 0.54742571 149.74363 0.22477699
6e+008 2.9348368 0.45393505 172.56676 0.13430419
7e+008 2.5177417 0.38041131 -168.70448 0.13840308
8e+008 2.2077512 0.31349451 -149.10639 0.15992108
9e+008 1.9621738 0.2494952 -130.99352 0.17706391
1e+009 1.7406622 0.19958264 -108.716 0.18994748
1.1e+009 1.6131156 0.15992338 -87.18286 0.19534145
1.2e+009 1.4887792 0.13633474 -60.097968 0.19694535
1.3e+009 1.3702691 0.1286328 -32.985668 0.19422795
1.4e+009 1.2758075 0.12193386 -6.1868449 0.18465887
1.5e+009 1.190811 0.13318142 16.677074 0.17526894
1.6e+009 1.1305809 0.14323607 40.502564 0.16102618
1.7e+009 1.0670242 0.16055746 57.297698 0.14843141
1.8e+009 1.0275617 0.17109447 73.947475 0.13462283
1.9e+009 0.97755797 0.18506314 86.388791 0.1217588
2e+009 0.94612704 0.19643708 98.299312 0.10930699
2.1e+009 0.91911751 0.20697155 111.18649 0.097061309
2.2e+009 0.88885701 0.21413896 121.48497 0.086905067
2.3e+009 0.86805256 0.22361085 133.29381 0.077227118
2.4e+009 0.86979663 0.22627333 142.63667 0.070570041
2.5e+009 0.84674412 0.23463231 153.46209 0.063797328
2.6e+009 0.83479279 0.23220673 162.24869 0.060360483
2.7e+009 0.8221022 0.22895285 170.79023 0.058347385
2.8e+009 0.81612211 0.22979253 -179.55102 0.057244976
2.9e+009 0.80999253 0.22205764 -170.91884 0.058201848
3e+009 0.80631012 0.22093297 -162.07404 0.059441276
3.1e+009 0.82499444 0.20692921 -153.87878 0.063172869
3.2e+009 0.81606422 0.19114485 -146.16592 0.06688138
3.3e+009 0.81599791 0.17807476 -139.51375 0.070298999
3.4e+009 0.8190317 0.16834166 -131.96734 0.074022165
3.5e+009 0.82006539 0.15040299 -125.9903 0.077491655
3.6e+009 0.8178186 0.12885264 -120.98232 0.080604693
3.7e+009 0.82270581 0.11758431 -117.51908 0.082649561
3.8e+009 0.83783293 0.092571087 -118.9905 0.084028171
3.9e+009 0.8435779 0.079457317 -121.62997 0.084718245
4e+009 0.84245321 0.064812299 -139.84505 0.083351202
4.1e+009 0.84272409 0.071718701 -162.18371 0.080478345
4.2e+009 0.84534043 0.094419493 -169.79177 0.077138623
4.3e+009 0.84199366 0.12769595 -176.3402 0.072436034
4.4e+009 0.84195743 0.16978401 -176.05756 0.067052892
4.5e+009 0.86697994 0.21576248 -170.88637 0.062326527
4.6e+009 0.85379844 0.26466703 -167.16977 0.057526388
4.7e+009 0.84712814 0.31945554 -159.91386 0.054628105
4.8e+009 0.84224623 0.35933492 -153.1586 0.055467596
4.9e+009 0.84611322 0.41272163 -145.58263 0.059361183
5e+009 0.86038361 0.46007052 -139.47827 0.066588915
5.1e+009 0.85223249 0.50249101 -131.48472 0.081903661
5.2e+009 0.87448214 0.53776686 -124.30048 0.10219856
5.3e+009 0.88762643 0.578021 -117.15152 0.13184317
5.4e+009 0.89112084 0.61693032 -110.52372 0.17100449
5.5e+009 0.98073131 0.65291364 -102.97295 0.22798676
5.6e+009 1.0166263 0.68323268 -96.848212 0.29090568
5.7e+009 1.0642692 0.71299683 -90.442246 0.37535194
5.8e+009 1.205953 0.73705317 -83.332081 0.48850017
5.9e+009 1.3365375 0.75663856 -77.830897 0.61087394
6e+009 1.2542914 0.78853408 -70.921064 0.79306387
6.1e+009 1.4133479 0.80388943 -65.028238 0.99600166
6.2e+009 1.7774976 0.81823148 -58.339361 1.3290339
6.3e+009 1.8845926 0.83036667 -54.130883 1.5856005
6.4e+009 2.4672571 0.8185946 -49.018713 1.9109812
6.5e+009 3.1010743 0.81270324 -43.012871 2.4609522
6.6e+009 3.5763229 0.81195208 -38.39513 3.010839
6.7e+009 4.2709161 0.80769338 -33.392175 3.8475174
6.8e+009 4.9976335 0.80079923 -28.337084 4.8015974
6.9e+009 5.7991553 0.80006927 -24.044222 6.2346433
7e+009 6.5321953 0.8002903 -19.878582 7.8487076
7.1e+009 7.3573807 0.80816964 -14.972046 10.484614
7.2e+009 8.3248444 0.80759341 -10.805968 13.687772
7.3e+009 9.5259019 0.80817921 -5.6871364 18.897122
7.4e+009 10.4128 0.81449421 -1.669401 24.611376
7.5e+009 11.59145 0.8162667 2.8055427 33.319376
7.6e+009 12.275502 0.82262936 6.9225412 40.823303
7.7e+009 12.61637 0.83106585 10.843979 46.527553
7.8e+009 13.139399 0.83864609 15.269531 55.01848
7.9e+009 13.474336 0.84377828 19.174371 61.134088
8e+009 13.674122 0.8446917 22.901419 63.768679
8.1e+009 14.024384 0.85121743 26.740593 71.586708
8.2e+009 14.213891 0.85725525 30.020857 77.204419
8.3e+009 14.31709 0.86088864 33.127666 80.121869
8.4e+009 14.750295 0.86515908 36.370301 90.249414
8.5e+009 14.968233 0.86635082 39.589601 94.125135
8.6e+009 15.34943 0.87477331 42.818569 108.14777
8.7e+009 15.330621 0.87483331 45.373246 105.80257
8.8e+009 15.425743 0.88126855 48.234452 112.02921
8.9e+009 15.416229 0.88770621 50.876098 116.09908
9e+009 15.23953 0.89050068 53.430182 111.89152
9.1e+009 14.973548 0.89444262 55.982008 106.72153
9.2e+009 14.761413 0.90659759 58.650515 112.52473
9.3e+009 14.371698 0.91118899 60.92561 105.68571
9.4e+009 13.84725 0.91570967 63.239861 96.118683
9.5e+009 13.017252 0.92482964 65.704581 86.355084
9.6e+009 12.034184 0.93864916 68.052948 81.769942
9.7e+009 11.428935 0.93743218 70.412813 67.154605
9.8e+009 10.232572 0.94477732 72.922501 55.037601
9.9e+009 8.9853101 0.95153807 75.566566 44.365073
1e+010 7.8932095 0.95984096 78.136458 39.252399
1.01e+010 7.1577766 0.96427724 80.412116 35.427242
1.02e+010 6.3414305 0.97016525 82.785329 33.427036
1.03e+010 6.7159424 0.96920474 85.182615 34.539832
1.04e+010 5.7458915 0.97862752 87.281259 39.112887
1.05e+010 5.5489018 0.98003124 89.88352 38.859649
1.06e+010 6.4279094 0.98699568 91.60897 78.877358
1.07e+010 4.467323 0.98605117 94.144532 46.0629
1.08e+010 3.8435799 0.98612797 96.07681 41.136293
1.09e+010 3.1391946 0.98511509 98.449841 34.995695
1.1e+010 3.1376577 0.98529668 100.53996 34.355396
1.11e+010 2.9150822 0.98599872 102.74487 40.629957
1.12e+010 2.4760899 0.98377251 105.21023 33.008787
1.13e+010 3.183077 0.98570842 107.60382 32.859576
1.14e+010 3.4599945 0.98523543 110.08103 28.556062
1.15e+010 3.0765387 0.98499815 112.39671 27.891905
1.16e+010 4.2789032 0.98521159 114.71192 27.163353
1.17e+010 5.5200915 0.9825505 117.25392 25.532187
1.18e+010 7.0193669 0.97601922 119.24576 23.783453
1.19e+010 9.0060849 0.96062876 122.6289 20.800024
1.2e+010 9.0486984 0.95641259 125.37191 17.28329
1.21e+010 9.4538368 0.94905377 128.53191 14.567943
1.22e+010 10.519566 0.92963388 131.98319 11.939954
1.23e+010 11.250561 0.91626632 134.91487 10.619884
1.24e+010 11.972077 0.89839125 138.69446 8.8206166
1.25e+010 12.428506 0.87948787 141.90576 7.1345774
1.26e+010 12.812868 0.85541763 147.15485 4.9975134
1.27e+010 13.19484 0.84144571 150.92985 4.0543113
1.28e+010 13.707725 0.81270274 155.43095 3.0289508
1.29e+010 13.943176 0.78419583 161.54836 1.9717432
1.3e+010 14.216085 0.74952117 167.77137 1.4061505
1.31e+010 14.479489 0.71170638 174.98004 1.2169836
1.32e+010 14.491138 0.67420092 -176.39499 1.3562122
1.33e+010 14.690592 0.62739602 -169.01156 1.9023013
1.34e+010 14.603285 0.60445447 -158.24995 2.6677851
1.35e+010 14.651089 0.56975843 -147.28955 3.8243805
1.36e+010 14.71706 0.52946701 -130.78455 5.8657817
1.37e+010 14.950547 0.499866 -119.0199 7.7291244
1.38e+010 14.73201 0.50025398 -101.51478 10.084035
1.39e+010 14.852338 0.492132 -83.726839 13.189287
1.4e+010 14.448857 0.52348696 -68.378882 15.382023
1.41e+010 14.657724 0.53341278 -53.072795 19.027017
1.42e+010 14.283747 0.58759699 -39.069108 22.303121
1.43e+010 14.20086 0.62017269 -27.911625 25.56192
1.44e+010 13.857474 0.67366411 -19.407605 29.144571
1.45e+010 14.126231 0.68599854 -9.4645198 33.226547
1.46e+010 13.947624 0.71945508 -2.1488377 36.570831
1.47e+010 13.780912 0.752903 5.0571212 40.610536
1.48e+010 14.030347 0.76062723 11.405046 44.339822
1.49e+010 14.140118 0.77122769 16.887466 47.352657
1.5e+010 14.308548 0.7815473 21.736296 51.187604
1.51e+010 14.483419 0.78155496 25.501108 52.64564
1.52e+010 15.066047 0.77012902 27.726142 56.579975
1.53e+010 15.028951 0.79258301 30.178489 62.251983
1.54e+010 14.77471 0.81603966 33.437475 65.865148
1.55e+010 15.107565 0.83039523 34.763067 77.379037
1.56e+010 14.78892 0.8582398 38.189616 85.440071
1.57e+010 14.636687 0.87921816 40.900839 96.164741
1.58e+010 14.425726 0.90045084 43.587452 110.22048
1.59e+010 15.245072 0.8989228 45.716568 129.76974
1.6e+010 15.684989 0.90649998 48.490838 153.03044
1.61e+010 16.271943 0.91449271 50.303352 190.20468
1.62e+010 16.537306 0.921116 52.401034 216.38683
1.63e+010 17.14094 0.92273995 54.348111 250.47734
1.64e+010 17.727028 0.92723741 56.127237 300.88712
1.65e+010 18.167821 0.93176141 58.177507 349.6246
1.66e+010 18.540639 0.93609981 60.067105 400.6973
1.67e+010 19.050768 0.94343254 61.890151 502.32529
1.68e+010 19.763549 0.94680659 63.830924 618.94601
1.69e+010 26.512754 0.9534957 65.682766 3317.7249
1.7e+010 21.137509 0.95079723 67.227248 887.19485
1.71e+010 22.278056 0.95459612 68.875701 1230.5306
1.72e+010 23.574682 0.95581793 70.518618 1674.2278
1.73e+010 24.499043 0.95804034 71.761093 2151.5897
1.74e+010 24.756729 0.9589121 73.366098 2285.5852
1.75e+010 24.308848 0.9569678 74.699193 1931.7987
1.76e+010 22.039508 0.95612203 76.020715 1100.7963
1.77e+010 18.748659 0.95609497 77.049807 505.4138
1.78e+010 16.630001 0.95491373 78.164225 295.3461
1.79e+010 15.354378 0.9563022 79.321027 222.33848
1.8e+010 14.466086 0.95914288 80.476556 189.85427
1.81e+010 13.997411 0.96124077 81.738999 175.87501
1.82e+010 13.712258 0.96221606 82.876938 165.67188
1.83e+010 13.140485 0.96357969 84.123251 147.23552
1.84e+010 12.961556 0.96678317 85.210281 152.24195
1.85e+010 12.15117 0.97111575 86.210168 142.3159
1.86e+010 11.965349 0.97226977 87.193736 139.53384
1.87e+010 11.406652 0.97392263 88.012135 128.19344
1.88e+010 11.616412 0.97401544 88.940488 133.16646
1.89e+010 11.767209 0.97610486 89.71384 148.44096
1.9e+010 12.44724 0.97578848 90.650253 169.46561
1.91e+010 13.609439 0.97670097 91.417242 229.26886
1.92e+010 13.793806 0.98046243 92.453734 281.18323
1.93e+010 15.66098 0.97931529 93.356096 405.39715
1.94e+010 15.76908 0.98171107 94.39951 462.00875
1.95e+010 17.284561 0.98003607 95.438066 591.14226
1.96e+010 17.552735 0.98358337 96.400831 752.84934
1.97e+010 18.973639 0.98200887 97.295018 939.01987
1.98e+010 19.905509 0.98273816 98.155921 1195.2096
1.99e+010 20.564064 0.9832101 99.041925 1406.4443
2e+010 21.926758 0.98299941 99.80547 1874.8961
