! AWR Design Environment (8415) Sat Oct 14 16:31:37 2017
! Document = 'Single_Stage_Amp_Full_bias_at_6mA'
! nPorts: 2, nXvals: 200

# HZ S DB R 50
!Freq DBS11 AngS11 DBS21 AngS21 DBS12 AngS12 DBS22 AngS22 
1e+008 -0.37562394 -36.647451 -15.423788 -88.199605 -89.485666 -177.4496 -20.221157 153.74648 
2e+008 -1.3983709 -72.863914 -7.9471403 -82.422581 -75.88295 -169.43258 -18.900776 124.6417 
3e+008 -3.053051 -109.18166 -1.8049491 -87.15527 -66.178452 -172.92527 -17.42988 96.452636 
4e+008 -4.8913485 -146.94887 2.6610024 -95.709851 -59.172612 179.50015 -15.507937 74.589505 
5e+008 -6.584565 165.7954 7.3238459 -105.98735 -52.493505 170.06265 -12.79978 53.445832 
6e+008 -6.6702304 118.18812 10.830008 -119.42516 -47.449102 157.41484 -10.59269 36.961627 
7e+008 -5.6987882 80.043826 13.204464 -134.30927 -43.629022 143.17073 -8.8749696 22.159564 
8e+008 -4.7039665 46.830751 15.372911 -151.81425 -40.367058 126.51575 -7.3285801 6.6119825 
9e+008 -3.9437883 17.129414 16.997007 -171.46085 -37.652023 107.60915 -5.9955749 -10.111644 
1e+009 -2.7670193 -9.2823698 18.747324 170.15682 -35.006991 89.996816 -4.5729753 -25.523411 
1.1e+009 -1.9827915 -32.906234 20.023964 151.27927 -32.900237 71.86927 -3.4897849 -41.065743 
1.2e+009 -1.5892464 -55.546398 20.942539 131.68386 -31.257528 53.193859 -2.7405978 -56.801819 
1.3e+009 -1.2462027 -76.986028 21.68883 112.43724 -29.797949 34.667244 -2.1607322 -72.240974 
1.4e+009 -1.095582 -98.107947 22.277637 93.150556 -28.597239 16.310556 -1.8153369 -87.361655 
1.5e+009 -1.2805281 -118.24676 22.472613 74.121095 -27.816335 -1.8489052 -1.8374254 -102.02314 
1.6e+009 -1.5986121 -137.5632 22.499559 55.635905 -27.215261 -19.444095 -2.0597701 -115.97978 
1.7e+009 -2.0103786 -155.9074 22.401016 38.195728 -26.799425 -35.964272 -2.4965293 -128.77322 
1.8e+009 -2.4820119 -173.6212 22.231262 21.700607 -26.46436 -51.619393 -3.0750582 -140.62167 
1.9e+009 -3.0254675 169.02043 21.993996 5.553273 -26.252019 -66.736727 -3.8236181 -151.76764 
2e+009 -3.6512974 152.90082 21.556111 -9.4684148 -26.221193 -80.908415 -4.7916702 -161.84493 
2.1e+009 -4.2079216 136.98308 21.185477 -23.841156 -26.149997 -94.391156 -5.8398718 -171.10284 
2.2e+009 -4.7695608 120.84779 20.851569 -38.020877 -26.070361 -107.69088 -7.0093932 -179.86217 
2.3e+009 -5.3563932 105.03996 20.444156 -51.71807 -26.074496 -120.55807 -8.409022 171.93751 
2.4e+009 -5.8199352 89.784209 20.01397 -64.638557 -26.129072 -132.57856 -10.017289 165.02894 
2.5e+009 -6.3992724 74.098901 19.623186 -77.686758 -26.124678 -144.91676 -11.841449 158.44311 
2.6e+009 -6.8269538 59.533544 19.205083 -89.936527 -26.203016 -156.43653 -13.983854 153.21143 
2.7e+009 -7.1983143 44.809919 18.790056 -101.99171 -26.283477 -167.73171 -16.580432 149.47882 
2.8e+009 -7.5557352 30.841864 18.399051 -113.89232 -26.372612 -178.79232 -19.80027 148.20841 
2.9e+009 -7.8288095 17.317602 17.980531 -125.47914 -26.478752 170.43086 -24.137931 152.83339 
3e+009 -8.0554029 4.3888256 17.600472 -136.83441 -26.571164 159.98559 -30.18263 177.99283 
3.1e+009 -8.1590584 -7.5386898 17.193961 -148.05773 -26.700399 149.61227 -30.421548 -117.58146 
3.2e+009 -8.2809159 -19.275612 16.826357 -159.016 -26.781744 139.514 -25.534355 -94.826465 
3.3e+009 -8.2847212 -30.838159 16.483572 -169.73858 -26.855596 129.59142 -22.294909 -90.210039 
3.4e+009 -8.2832149 -41.211238 16.115443 179.49685 -26.961063 119.78685 -20.203576 -89.313999 
3.5e+009 -8.1752727 -50.986221 15.758619 169.02058 -27.063963 110.20058 -18.796781 -90.382077 
3.6e+009 -8.0410582 -60.577862 15.417321 158.50239 -27.150064 100.61239 -17.895445 -91.618323 
3.7e+009 -7.9112608 -69.09526 15.096207 147.99944 -27.221703 91.00944 -17.272992 -92.274826 
3.8e+009 -7.7209358 -77.912553 14.787268 137.50873 -27.293753 81.468728 -16.842732 -92.897506 
3.9e+009 -7.5138965 -85.882839 14.484797 127.06793 -27.345911 71.997927 -16.550549 -92.527038 
4e+009 -7.2062169 -93.982376 14.158335 116.56618 -27.431369 62.346179 -16.330603 -91.831741 
4.1e+009 -6.8981467 -101.73913 13.878096 106.13876 -27.490514 52.80876 -16.225557 -89.78745 
4.2e+009 -6.5742629 -109.75921 13.610764 95.611044 -27.52491 43.171044 -16.086819 -87.063395 
4.3e+009 -6.1895199 -117.53827 13.319935 85.079489 -27.595325 33.559489 -15.831601 -83.870894 
4.4e+009 -5.7983476 -125.69786 13.023913 74.449966 -27.662885 23.829966 -15.48833 -80.085515 
4.5e+009 -5.3973958 -133.77634 12.736972 63.968742 -27.736544 14.248742 -15.024649 -76.097085 
4.6e+009 -5.0156227 -142.21952 12.472027 53.346147 -27.794997 4.4661472 -14.400744 -71.924343 
4.7e+009 -4.6205099 -150.63687 12.186191 42.634289 -27.879914 -5.3357109 -13.665457 -68.712643 
4.8e+009 -4.2429437 -159.33787 11.852124 31.872996 -28.002656 -15.217004 -12.863723 -66.588328 
4.9e+009 -3.896052 -168.10249 11.546103 21.219186 -28.113408 -25.010814 -11.999221 -64.869911 
5e+009 -3.5798604 -176.88483 11.23046 10.483158 -28.222171 -34.836842 -11.113729 -64.007308 
5.1e+009 -3.2912453 174.3424 10.882012 -0.30679531 -28.375107 -44.734119 -10.305044 -64.031686 
5.2e+009 -3.0279935 165.50803 10.515541 -10.744116 -28.547033 -54.234116 -9.5416274 -64.16368 
5.3e+009 -2.8041435 156.67286 10.198122 -21.21841 -28.67802 -63.90825 -8.7531636 -65.084332 
5.4e+009 -2.6118972 147.89216 9.848408 -31.869678 -28.842069 -73.719678 -8.0549639 -66.536791 
5.5e+009 -2.4576417 139.32261 9.4559566 -42.297387 -29.050883 -83.272481 -7.4363237 -67.958103 
5.6e+009 -2.338053 130.87634 9.0555234 -52.789714 -29.268644 -92.849714 -6.8687533 -69.609597 
5.7e+009 -2.2577678 122.66362 8.6423977 -63.076473 -29.50449 -102.27975 -6.3503166 -71.425503 
5.8e+009 -2.2073067 114.67581 8.2153657 -73.302528 -29.755055 -111.61253 -5.8745505 -73.279575 
5.9e+009 -2.1790624 107.01802 7.7783053 -83.365107 -30.0205 -120.79749 -5.4278894 -75.088287 
6e+009 -2.1862427 99.385831 7.3974774 -93.830468 -30.230887 -130.35047 -5.0349641 -77.086733 
6.1e+009 -2.2579298 92.032854 6.991035 -104.62783 -30.468168 -140.27378 -4.6962172 -78.983259 
6.2e+009 -2.32815 85.314505 6.5080778 -114.74982 -30.78292 -149.48982 -4.345029 -80.750421 
6.3e+009 -2.4195892 78.807551 6.0518177 -124.92202 -31.070648 -158.78824 -4.0131984 -82.579555 
6.4e+009 -2.5289509 72.948895 5.494605 -134.96848 -31.460472 -167.92848 -3.6891647 -84.34684 
6.5e+009 -2.6832533 67.526456 4.912531 -145.44579 -31.876672 -177.53092 -3.3912235 -86.096198 
6.6e+009 -2.8156294 62.711449 4.259249 -155.63382 -32.365351 173.18618 -3.1007495 -87.900904 
6.7e+009 -2.9577068 58.449597 3.551224 -166.10922 -32.907318 163.5471 -2.8286253 -89.733171 
6.8e+009 -3.0288227 54.397255 2.8705632 -175.89209 -33.423206 154.62791 -2.5764337 -91.672348 
6.9e+009 -3.1210789 51.36439 1.9451945 173.23751 -34.191154 144.71329 -2.3406285 -93.573802 
7e+009 -3.0747683 48.513314 0.92830826 163.70283 -35.051837 136.16283 -2.1268833 -95.545792 
7.1e+009 -2.9259194 45.813064 -0.24081175 155.155 -36.052703 128.48861 -1.9370407 -97.487452 
7.2e+009 -2.7496031 43.151099 -1.5144643 146.41953 -37.159752 120.64953 -1.772686 -99.382828 
7.3e+009 -2.5331612 39.868055 -2.6902546 139.20694 -38.175692 114.2771 -1.6278213 -101.26425 
7.4e+009 -2.261363 36.297745 -3.9833179 134.16426 -39.31089 110.10426 -1.4938883 -103.05643 
7.5e+009 -1.9793075 32.61621 -5.3658953 130.73658 -40.526391 107.61598 -1.3686294 -104.75252 
7.6e+009 -1.7512275 28.313682 -6.2682602 129.40085 -41.263597 107.24085 -1.2506679 -106.46372 
7.7e+009 -1.5961596 23.930059 -6.7846033 128.3236 -41.621169 106.85659 -1.1433589 -108.21522 
7.8e+009 -1.4881733 19.630361 -7.0391404 126.36827 -41.71814 105.62827 -1.0535665 -109.94283 
7.9e+009 -1.3862438 15.456573 -7.1213804 124.89421 -41.665379 105.16783 -0.97569295 -111.61388 
8e+009 -1.3546799 11.3299 -6.8082389 120.87453 -41.217355 102.17453 -0.91945337 -113.24034 
8.1e+009 -1.3448458 7.6316128 -6.7387636 114.55684 -40.959056 96.665285 -0.87042353 -114.77555 
8.2e+009 -1.3383147 3.999002 -6.5966879 108.20834 -40.631637 91.158341 -0.82700434 -116.24965 
8.3e+009 -1.3396708 0.67086529 -6.570809 101.12156 -40.451144 84.961872 -0.78784406 -117.64372 
8.4e+009 -1.3184531 -2.6542134 -6.5141019 95.411986 -40.241056 80.161986 -0.75062262 -119.00312 
8.5e+009 -1.3281887 -5.8547521 -6.3806571 88.340042 -39.954447 73.579607 -0.71714331 -120.3352 
8.6e+009 -1.3381719 -8.9288203 -6.2708527 81.19293 -39.69203 66.95293 -0.68512363 -121.64178 
8.7e+009 -1.3510711 -11.945879 -6.0788193 74.07601 -39.345329 60.806515 -0.65368131 -122.91697 
8.8e+009 -1.3545134 -14.792935 -5.9973192 67.16234 -39.110907 54.88234 -0.62461828 -124.18008 
8.9e+009 -1.350951 -17.597428 -5.8910724 60.716885 -38.859117 49.31537 -0.59781349 -125.43207 
9e+009 -1.3752906 -20.289436 -5.7087207 53.120534 -38.532614 42.610534 -0.5734021 -126.70447 
9.1e+009 -1.4015337 -22.900768 -5.526008 45.800236 -38.19903 35.97381 -0.5538934 -127.98816 
9.2e+009 -1.4198984 -25.183582 -5.5750528 37.886787 -38.098868 28.766787 -0.54654088 -129.2784 
9.3e+009 -1.456797 -27.614573 -5.3464956 30.343124 -37.726373 22.007444 -0.53784075 -130.59988 
9.4e+009 -1.5064697 -29.995565 -5.0303469 22.702469 -37.268194 15.172469 -0.53499235 -131.96028 
9.5e+009 -1.5771684 -32.255289 -4.6360659 14.569514 -36.718643 7.871401 -0.54316332 -133.36996 
9.6e+009 -1.6820264 -34.441697 -4.0744707 5.9251675 -36.003571 0.075167469 -0.56244919 -134.88131 
9.7e+009 -1.7613751 -36.209128 -3.7588305 -3.1591619 -35.555828 -8.1417557 -0.60752475 -136.36954 
9.8e+009 -1.9030797 -37.871339 -3.1128004 -13.11069 -34.779835 -17.21069 -0.67496614 -138.03815 
9.9e+009 -2.0645984 -39.243143 -2.4045427 -23.556597 -33.864305 -26.876807 -0.77941067 -139.82167 
1e+010 -2.1676238 -39.435926 -2.0409257 -37.429001 -33.297008 -39.949001 -0.98085146 -141.36734 
1.01e+010 -2.1949531 -39.591213 -1.7328579 -50.264924 -32.837854 -52.268295 -1.2177311 -142.60626 
1.02e+010 -2.1431783 -38.869715 -1.3789694 -66.437165 -32.334568 -67.897165 -1.5586612 -143.32896 
1.03e+010 -1.800582 -38.739082 -1.8720936 -83.423578 -32.675178 -84.249765 -1.8439074 -142.71745 
1.04e+010 -1.4362007 -39.880162 -2.6198966 -98.215976 -33.272038 -98.385976 -2.0005095 -141.76352 
1.05e+010 -1.0760882 -41.495717 -3.4631272 -114.01247 -33.968242 -113.58792 -2.0653951 -140.45987 
1.06e+010 -0.77551109 -43.815432 -4.5650661 -128.40802 -34.924655 -127.36802 -2.0061452 -139.46538 
1.07e+010 -0.59342673 -46.575467 -5.827036 -138.59297 -36.05431 -136.83545 -1.9008407 -139.36167 
1.08e+010 -0.43195237 -49.058161 -6.8496767 -150.89054 -36.94665 -148.40054 -1.7982958 -139.21621 
1.09e+010 -0.34768999 -51.691262 -8.1638183 -158.76779 -38.103017 -155.62192 -1.6977755 -139.84392 
1.1e+010 -0.28840014 -54.09629 -9.2504769 -166.24114 -39.033882 -162.42114 -1.6323222 -140.55569 
1.11e+010 -0.2292207 -56.388065 -10.31978 -175.57093 -39.978023 -171.02746 -1.5596603 -141.23399 
1.12e+010 -0.19427727 -58.552614 -11.233765 176.62352 -40.769587 -178.09648 -1.5214454 -142.06559 
1.13e+010 -0.16693803 -60.642617 -12.190628 169.02298 -41.561604 174.80929 -1.492459 -143.04272 
1.14e+010 -0.15508487 -62.626621 -12.977171 163.29687 -42.185008 169.61687 -1.5044938 -144.11894 
1.15e+010 -0.14813871 -64.51092 -13.547423 158.24409 -42.628213 165.12528 -1.546064 -145.17984 
1.16e+010 -0.14074377 -66.33155 -14.002853 152.78514 -42.957846 160.24514 -1.6036736 -146.23331 
1.17e+010 -0.12846095 -68.082728 -14.254408 145.41246 -43.05405 153.49799 -1.6617843 -147.19502 
1.18e+010 -0.12468899 -69.826325 -14.616125 139.855 -43.262852 148.585 -1.7616373 -148.34376 
1.19e+010 -0.12191563 -71.525751 -14.859693 134.42565 -43.412776 143.66016 -1.8864888 -149.50373 
1.2e+010 -0.11756917 -73.203789 -15.151203 128.18726 -43.611843 137.93726 -2.0321786 -150.77036 
1.21e+010 -0.11419989 -74.859105 -15.46047 121.6461 -43.756198 132.2165 -2.2245573 -152.08088 
1.22e+010 -0.11088088 -76.467384 -15.572243 114.44369 -43.707107 125.85369 -2.4581887 -153.28178 
1.23e+010 -0.10828973 -78.058636 -15.697469 107.16297 -43.671807 119.03976 -2.7563098 -154.5683 
1.24e+010 -0.10634812 -79.625181 -15.753453 99.507034 -43.569318 111.87703 -3.1386674 -155.72043 
1.25e+010 -0.10472629 -81.163973 -15.739015 91.407238 -43.441506 104.29872 -3.6186352 -156.47446 
1.26e+010 -0.10298731 -82.68239 -15.675794 82.590157 -43.265415 96.020157 -4.2065685 -156.64 
1.27e+010 -0.10094651 -84.182522 -15.546289 72.877724 -42.978278 86.943182 -4.9106761 -155.78713 
1.28e+010 -0.097833867 -85.663913 -15.381901 62.155633 -42.659626 76.865633 -5.6776723 -153.35396 
1.29e+010 -0.09618169 -87.149982 -15.362527 51.637934 -42.538236 66.722968 -6.434442 -148.3956 
1.3e+010 -0.093079849 -88.635996 -15.468988 40.228476 -42.543878 55.708476 -6.9366963 -140.87786 
1.31e+010 -0.089026229 -90.11354 -15.680718 28.274129 -42.596376 44.272182 -6.8846157 -132.05791 
1.32e+010 -0.085857094 -91.603372 -16.101039 16.668629 -42.858896 33.208629 -6.2493131 -124.29522 
1.33e+010 -0.082874971 -93.105795 -16.610875 5.3071595 -43.220178 22.307472 -5.3313814 -119.40873 
1.34e+010 -0.080512561 -94.625273 -17.319836 -5.7681442 -43.783677 11.711856 -4.3722994 -117.13514 
1.35e+010 -0.079356121 -96.154906 -18.167601 -15.977637 -44.531313 2.1148786 -3.5132333 -116.86929 
1.36e+010 -0.079197543 -97.69024 -19.015721 -25.354407 -45.281553 -6.6344072 -2.8225491 -117.77321 
1.37e+010 -0.079805055 -99.239394 -19.911917 -34.315038 -46.009356 -15.15705 -2.276988 -119.18649 
1.38e+010 -0.08119577 -100.79994 -20.77742 -42.574155 -46.7084 -22.954155 -1.8561201 -120.84255 
1.39e+010 -0.083097616 -102.37469 -21.594353 -49.740253 -47.436317 -29.846724 -1.5326901 -122.55942 
1.4e+010 -0.084419716 -103.96835 -22.331019 -57.29729 -48.084909 -37.11729 -1.2822893 -124.16944 
1.41e+010 -0.087153096 -105.58536 -23.074425 -64.310081 -48.698442 -43.463257 -1.085373 -125.73082 
1.42e+010 -0.090318448 -107.22924 -23.762785 -71.014801 -49.259367 -49.484801 -0.92993298 -127.17991 
1.43e+010 -0.094182901 -108.90856 -24.407881 -76.795495 -49.781364 -54.835974 -0.80311602 -128.52699 
1.44e+010 -0.097564757 -110.62503 -24.990472 -83.252194 -50.242642 -60.842194 -0.69954242 -129.74551 
1.45e+010 -0.10217382 -112.38173 -25.526177 -89.07294 -50.640244 -66.095863 -0.62030809 -130.88996 
1.46e+010 -0.10727551 -114.18606 -25.993214 -94.775749 -50.971394 -71.215749 -0.55568293 -131.94124 
1.47e+010 -0.11271739 -116.05148 -26.511414 -100.30343 -51.359597 -76.33787 -0.49745935 -132.91978 
1.48e+010 -0.11863436 -117.97981 -26.977578 -105.78361 -51.697589 -81.393608 -0.44900077 -133.82814 
1.49e+010 -0.12408063 -119.97425 -27.398856 -112.31371 -51.987858 -87.529069 -0.40880169 -134.65037 
1.5e+010 -0.13049057 -122.05216 -27.829586 -118.33155 -52.289196 -93.131551 -0.37442234 -135.43002 
1.51e+010 -0.13793813 -124.22188 -28.1756 -124.18041 -52.513478 -98.684395 -0.34396835 -136.16392 
1.52e+010 -0.14524332 -126.49377 -28.461112 -130.73341 -52.678957 -104.92341 -0.31685286 -136.84433 
1.53e+010 -0.15333566 -128.89145 -28.793687 -136.67109 -52.915709 -110.43834 -0.2936253 -137.49838 
1.54e+010 -0.16354053 -131.43048 -29.112555 -141.67646 -53.140485 -115.00646 -0.27479804 -138.12783 
1.55e+010 -0.17418951 -134.1237 -29.452948 -147.63922 -53.346893 -120.51931 -0.25681023 -138.72078 
1.56e+010 -0.18640494 -136.99558 -29.740232 -153.50331 -53.502425 -125.91331 -0.24136984 -139.28504 
1.57e+010 -0.20015947 -140.08253 -29.9874 -158.93571 -53.666834 -131.09764 -0.22821605 -139.82642 
1.58e+010 -0.21601111 -143.41304 -30.244066 -164.1711 -53.841878 -136.0711 -0.21715015 -140.34801 
1.59e+010 -0.23362596 -147.01605 -30.504353 -169.82093 -53.984922 -141.05442 -0.20790668 -140.84618 
1.6e+010 -0.25429333 -150.945 -30.771595 -175.25471 -54.138132 -145.80471 -0.20072382 -141.32691 
1.61e+010 -0.27664445 -155.26642 -31.171247 178.93262 -54.431241 -151.06627 -0.19419933 -141.80084 
1.62e+010 -0.30763503 -160.01606 -31.361263 174.52907 -54.517419 -154.90093 -0.19301927 -142.24441 
1.63e+010 -0.33639277 -165.26988 -31.690286 167.79437 -54.699326 -160.99863 -0.18960627 -142.67278 
1.64e+010 -0.36924368 -171.11967 -32.025991 160.7312 -54.88999 -167.3988 -0.18820749 -143.08629 
1.65e+010 -0.40637918 -177.61663 -32.080837 152.44554 -54.786509 -175.50746 -0.1864337 -143.46655 
1.66e+010 -0.44865081 175.08695 -32.160758 143.79227 -54.709425 176.04227 -0.18674817 -143.832 
1.67e+010 -0.48887395 166.83872 -32.515802 133.30599 -54.959303 165.87316 -0.18837994 -144.20552 
1.68e+010 -0.54606168 157.60406 -32.499919 124.18197 -54.839113 157.08197 -0.19337932 -144.50651 
1.69e+010 -0.6100262 147.19683 -32.643084 115.0595 -54.876288 148.18612 -0.20250013 -144.77442 
1.7e+010 -0.67801638 135.54303 -33.026337 105.70805 -55.155252 139.07805 -0.21344503 -144.98245 
1.71e+010 -0.74601207 122.67616 -33.649439 95.751491 -55.670443 129.59789 -0.21835521 -145.11185 
1.72e+010 -0.82201933 108.68089 -34.5124 88.74591 -56.427751 123.08591 -0.20713604 -145.15225 
1.73e+010 -0.88835156 93.811415 -35.595868 84.408089 -57.428802 119.29978 -0.17542373 -145.22363 
1.74e+010 -0.94590042 78.435319 -36.695495 85.26554 -58.448899 120.72554 -0.1308304 -145.40996 
1.75e+010 -1.000526 63.077179 -37.237222 90.660219 -58.819738 126.63342 -0.0891135 -145.7317 
1.76e+010 -1.0672524 48.21576 -36.5666 98.365985 -57.979978 134.87598 -0.058821951 -146.11896 
1.77e+010 -1.1850598 34.581967 -34.113141 99.827189 -55.403518 136.55508 -0.040692458 -146.52418 
1.78e+010 -1.2554945 22.436986 -32.400216 93.674588 -53.56943 130.64459 -0.03117552 -146.89177 
1.79e+010 -1.336471 12.471772 -30.286258 80.368679 -51.314727 117.61926 -0.025623839 -147.23857 
1.8e+010 -1.165725 4.7116198 -29.092439 56.255005 -49.981124 93.815005 -0.021957248 -147.55508 
1.81e+010 -0.72948659 -3.8305286 -30.133035 29.73837 -50.924413 67.809005 -0.017421132 -147.85732 
1.82e+010 -0.45810826 -12.786208 -32.195283 10.378547 -52.892179 48.978547 -0.014103564 -148.16022 
1.83e+010 -0.3305388 -20.642012 -34.012883 -2.5197802 -54.553783 36.527629 -0.011979045 -148.45228 
1.84e+010 -0.25691665 -27.556097 -35.67521 -13.59313 -56.061227 25.93687 -0.011038314 -148.73601 
1.85e+010 -0.21255492 -33.581161 -36.951049 -22.216318 -57.185471 17.491411 -0.010019052 -149.00878 
1.86e+010 -0.18183701 -38.900437 -38.039424 -29.274853 -58.121468 10.635147 -0.0091430999 -149.27146 
1.87e+010 -0.15670877 -43.65177 -38.998588 -35.697681 -58.951522 4.4161629 -0.0086976015 -149.5254 
1.88e+010 -0.13730579 -47.914531 -39.771366 -41.558028 -59.596036 -1.2180284 -0.0083914099 -149.77267 
1.89e+010 -0.12342969 -51.743723 -40.489204 -46.602605 -60.164102 -6.1277387 -0.0080662363 -150.01189 
1.9e+010 -0.11205905 -55.221344 -41.106679 -51.167041 -60.633064 -10.537041 -0.0077651023 -150.24514 
1.91e+010 -0.10226157 -58.401598 -41.679686 -56.261581 -61.070584 -15.57004 -0.0077470339 -150.4719 
1.92e+010 -0.094437536 -61.316967 -42.149963 -61.504766 -61.40589 -20.724766 -0.0078181734 -150.69328 
1.93e+010 -0.088523148 -63.995164 -42.472119 -66.676312 -61.607 -25.950332 -0.0079804373 -150.91014 
1.94e+010 -0.084120243 -66.473041 -42.666052 -71.93378 -61.679674 -31.24378 -0.0082064168 -151.12242 
1.95e+010 -0.081566398 -68.779211 -42.740239 -78.103411 -61.656224 -37.759633 -0.0085252109 -151.32931 
1.96e+010 -0.081039972 -70.92988 -42.603077 -84.717622 -61.419292 -44.697622 -0.0089799822 -151.53209 
1.97e+010 -0.079416741 -72.934766 -42.381492 -90.231826 -61.207773 -49.901351 -0.009394202 -151.73174 
1.98e+010 -0.078809154 -74.814489 -42.141572 -95.930928 -60.978738 -55.290928 -0.0097792628 -151.92659 
1.99e+010 -0.08375914 -76.607399 -41.558269 -103.21587 -60.322562 -61.811309 -0.010332119 -152.11618 
2e+010 -0.092383547 -78.302749 -40.799362 -111.12012 -59.494441 -68.940119 -0.010912167 -152.301 

!Noise Parameters
!Freq  NFmin(dB)  Mag(GammaOpt)  Ang(GammaOpt)(deg)  rn(normalized)
1e+008 8.3905308 0.96696721 36.46183 89.591325
2e+008 7.1736848 0.88480069 70.932078 13.4763
3e+008 5.600171 0.77327278 101.84656 2.610991
4e+008 4.503823 0.66352428 128.82329 0.65375519
5e+008 3.4523493 0.54324432 153.6262 0.19643844
6e+008 2.8116915 0.44332007 175.9597 0.13259771
7e+008 2.430475 0.36719619 -163.79121 0.145395
8e+008 2.1354567 0.2985858 -144.20283 0.16894741
9e+008 1.9092845 0.23654146 -123.72363 0.18822111
1e+009 1.695892 0.18829505 -100.27434 0.19938598
1.1e+009 1.5438157 0.15650328 -75.501158 0.20438916
1.2e+009 1.4230846 0.13806859 -48.136813 0.20319248
1.3e+009 1.3179311 0.13314848 -21.620245 0.19803794
1.4e+009 1.2269271 0.13727573 2.7192494 0.18928771
1.5e+009 1.151295 0.14839308 24.583862 0.17762222
1.6e+009 1.0840868 0.16240252 43.518913 0.16392205
1.7e+009 1.0270406 0.17680605 59.154031 0.15004414
1.8e+009 0.98760052 0.18449283 72.218021 0.13724234
1.9e+009 0.94367234 0.19593234 84.967579 0.12346248
2e+009 0.9147075 0.20456462 96.952959 0.11034118
2.1e+009 0.8895452 0.2087305 107.72906 0.09921894
2.2e+009 0.85914061 0.21323724 118.26836 0.088737623
2.3e+009 0.84067142 0.21299235 128.40513 0.080379907
2.4e+009 0.82472862 0.2126126 138.17784 0.07330606
2.5e+009 0.80426584 0.21021661 148.11337 0.067749614
2.6e+009 0.79290116 0.2055152 157.54258 0.064106982
2.7e+009 0.78340222 0.19872963 166.74504 0.062138391
2.8e+009 0.77574445 0.18855159 176.347 0.062007069
2.9e+009 0.76944526 0.17829192 -173.97631 0.062877776
3e+009 0.76451706 0.16631467 -164.38593 0.064901906
3.1e+009 0.7653623 0.15207514 -154.0263 0.068291968
3.2e+009 0.76231045 0.13722066 -143.97715 0.071996921
3.3e+009 0.76024431 0.12055789 -134.12731 0.07599259
3.4e+009 0.76320111 0.10303376 -122.17071 0.080568459
3.5e+009 0.76609232 0.085318775 -109.68051 0.084663108
3.6e+009 0.76981493 0.066958938 -93.626262 0.088772038
3.7e+009 0.77406189 0.050934997 -71.000231 0.092471219
3.8e+009 0.77859714 0.040003227 -37.7263 0.095409141
3.9e+009 0.7837512 0.040752933 3.5884556 0.097578549
4e+009 0.79245308 0.053386798 37.083538 0.098872654
4.1e+009 0.7978279 0.071327984 59.482144 0.09873262
4.2e+009 0.80373692 0.092541968 76.114496 0.097581016
4.3e+009 0.8130201 0.11565933 89.553998 0.095420089
4.4e+009 0.8226049 0.13947481 101.37585 0.092051161
4.5e+009 0.83233641 0.16387105 112.51984 0.087593735
4.6e+009 0.839592 0.18842107 122.75181 0.082412962
4.7e+009 0.84991634 0.21347007 132.42201 0.076763644
4.8e+009 0.86364269 0.23890189 141.79306 0.070863824
4.9e+009 0.87497032 0.26449409 151.06879 0.064849464
5e+009 0.88718043 0.28999471 159.90549 0.059378068
5.1e+009 0.90256456 0.31536031 168.55545 0.05474986
5.2e+009 0.91820179 0.34167538 177.42906 0.051143277
5.3e+009 0.9300861 0.36723384 -174.21779 0.049502252
5.4e+009 0.94709574 0.3928767 -166.27686 0.050047032
5.5e+009 0.96760709 0.41842057 -158.23601 0.053360612
5.6e+009 0.99053511 0.44372269 -150.51095 0.059869663
5.7e+009 1.0166129 0.46871435 -142.94015 0.070347753
5.8e+009 1.045941 0.4935849 -135.59775 0.085276615
5.9e+009 1.0779748 0.51798863 -128.39247 0.10558749
6e+009 1.1150853 0.54130194 -121.74733 0.13139811
6.1e+009 1.1739008 0.56561356 -115.60886 0.16581777
6.2e+009 1.2286096 0.5888574 -109.16158 0.20882204
6.3e+009 1.2902321 0.61130579 -103.0085 0.26270128
6.4e+009 1.3560396 0.63242098 -96.807397 0.3274353
6.5e+009 1.4491843 0.65439163 -91.088625 0.41256108
6.6e+009 1.5435559 0.67499046 -85.341914 0.51402317
6.7e+009 1.6685355 0.69645737 -79.966224 0.6490704
6.8e+009 1.7808356 0.71600314 -74.557477 0.80496588
6.9e+009 1.9696679 0.73842535 -69.60224 1.0422784
7e+009 2.1430146 0.75838103 -64.437879 1.3171894
7.1e+009 2.3261122 0.77696183 -59.259541 1.650135
7.2e+009 2.5800267 0.79770889 -54.449051 2.1578233
7.3e+009 2.8031144 0.81543272 -49.587886 2.7418556
7.4e+009 3.0081512 0.83141252 -44.66273 3.4133684
7.5e+009 3.2408238 0.84745389 -39.895335 4.3107959
7.6e+009 3.3259821 0.85903341 -35.122207 5.022737
7.7e+009 3.2471352 0.86531794 -30.335381 5.2522946
7.8e+009 3.1448728 0.87062685 -25.797255 5.4052709
7.9e+009 3.016414 0.87567746 -21.44191 5.4950798
8e+009 2.81952 0.87689108 -17.188805 5.2192667
8.1e+009 2.7048702 0.87800268 -13.1449 5.0580758
8.2e+009 2.6035896 0.87913185 -9.2803486 4.9327954
8.3e+009 2.5317048 0.87982444 -5.5661394 4.8103071
8.4e+009 2.4711998 0.88184895 -2.0245561 4.7993392
8.5e+009 2.4092143 0.88204803 1.3989365 4.6844346
8.6e+009 2.3627296 0.88232887 4.6824002 4.598956
8.7e+009 2.3116148 0.88216174 7.8391906 4.487731
8.8e+009 2.2870475 0.88278205 10.861775 4.4527817
8.9e+009 2.2628529 0.88344388 13.771608 4.4213884
9e+009 2.2386948 0.88268582 16.567742 4.3159925
9.1e+009 2.2250772 0.88252419 19.246544 4.2604575
9.2e+009 2.2500295 0.88302853 21.821432 4.2683262
9.3e+009 2.2428625 0.88287118 24.296371 4.2201247
9.4e+009 2.2320397 0.8826551 26.681487 4.1677861
9.5e+009 2.2209039 0.88222268 28.952045 4.1051082
9.6e+009 2.2005028 0.88159651 31.12072 4.0295277
9.7e+009 2.2103814 0.88216745 33.222069 4.0258168
9.8e+009 2.1951836 0.88236349 35.214907 3.990039
9.9e+009 2.1789963 0.88320656 37.135029 3.9799416
1e+010 2.1932331 0.88432558 38.921107 3.9943557
1.01e+010 2.2048223 0.88686189 40.750339 4.0733499
1.02e+010 2.2006627 0.8896289 42.456808 4.1536386
1.03e+010 2.2282494 0.89353953 44.084855 4.30093
1.04e+010 2.2660099 0.89842768 45.757195 4.5224501
1.05e+010 2.2818437 0.90415494 47.376723 4.793907
1.06e+010 2.3038376 0.91067851 49.002957 5.1546774
1.07e+010 2.3652202 0.91746627 50.701123 5.6190915
1.08e+010 2.374066 0.92459955 52.376466 6.1476803
1.09e+010 2.4571458 0.93175237 54.121784 6.8781941
1.1e+010 2.5321782 0.93818979 55.891721 7.6788272
1.11e+010 2.5784756 0.94511969 57.641723 8.7100343
1.12e+010 2.6412943 0.95089916 59.416166 9.819565
1.13e+010 2.7064874 0.95649688 61.186557 11.187875
1.14e+010 2.7945408 0.96068076 62.939752 12.451471
1.15e+010 2.8779509 0.9638404 64.672338 13.586482
1.16e+010 2.9638218 0.96663432 66.398445 14.87379
1.17e+010 2.9822965 0.96921617 68.094644 16.126395
1.18e+010 3.095843 0.97147846 69.786397 17.71263
1.19e+010 3.1989516 0.97335095 71.450424 19.232164
1.2e+010 3.3077275 0.97539826 73.099689 21.195997
1.21e+010 3.4477692 0.97722056 74.733857 23.444694
1.22e+010 3.541779 0.97862498 76.33439 25.288077
1.23e+010 3.6514834 0.9799951 77.921657 27.440777
1.24e+010 3.7636536 0.98114525 79.491047 29.543734
1.25e+010 3.8641791 0.98207812 81.040663 31.415688
1.26e+010 3.9523268 0.98287037 82.574849 33.086861
1.27e+010 4.0269546 0.98353768 84.09652 34.509881
1.28e+010 4.0662328 0.98410993 85.60515 35.527903
1.29e+010 4.1582726 0.98450291 87.111598 36.565666
1.3e+010 4.2528755 0.9849154 88.616024 37.716261
1.31e+010 4.3293905 0.98523587 90.11375 38.511964
1.32e+010 4.4400681 0.98545702 91.613425 39.283821
1.33e+010 4.5440431 0.98563608 93.116049 39.877318
1.34e+010 4.6777459 0.98583532 94.628604 40.815843
1.35e+010 4.8214079 0.98597492 96.147748 41.646339
1.36e+010 4.9460295 0.98602342 97.67271 41.945945
1.37e+010 5.0742905 0.9860878 99.211463 42.319521
1.38e+010 5.1928083 0.98607868 100.76347 42.289073
1.39e+010 5.3050209 0.98597966 102.33211 41.840032
1.4e+010 5.3843027 0.98591413 103.92128 41.147805
1.41e+010 5.4909563 0.98575108 105.5371 40.335583
1.42e+010 5.5928501 0.98552403 107.18185 39.234869
1.43e+010 5.6964277 0.98519913 108.86128 37.833259
1.44e+010 5.7788482 0.98490427 110.57968 36.337096
1.45e+010 5.8802559 0.98445811 112.34239 34.590444
1.46e+010 5.9699838 0.98391865 114.15436 32.560655
1.47e+010 6.086443 0.98336316 116.02831 30.766251
1.48e+010 6.1961022 0.98271457 117.9669 28.779847
1.49e+010 6.2870081 0.98204235 119.97704 26.701432
1.5e+010 6.3957526 0.98122868 122.07206 24.583289
1.51e+010 6.4842719 0.98025804 124.26007 22.238408
1.52e+010 6.5521148 0.97921099 126.55441 19.859792
1.53e+010 6.6467426 0.97799768 128.97408 17.602298
1.54e+010 6.7862154 0.97667738 131.53515 15.604297
1.55e+010 6.9763935 0.97548891 134.25622 13.992023
1.56e+010 7.160498 0.97408814 137.15822 12.254354
1.57e+010 7.3547322 0.97250444 140.27372 10.504588
1.58e+010 7.5778675 0.97072283 143.63412 8.8059011
1.59e+010 7.815187 0.96872313 147.27207 7.135514
1.6e+010 8.08835 0.96646819 151.23707 5.5424421
1.61e+010 8.4591713 0.9641701 155.58812 4.1291545
1.62e+010 8.786998 0.96112221 160.37348 2.6920259
1.63e+010 9.1822018 0.95818142 165.66565 1.4989994
1.64e+010 9.6399572 0.95495449 171.55495 0.57716948
1.65e+010 10.005863 0.9512495 178.12424 0.087279356
1.66e+010 10.493667 0.94743114 -174.4933 0.30932463
1.67e+010 11.335956 0.94435336 -166.16319 1.8015534
1.68e+010 12.537871 0.94188436 -156.73407 6.2077063
1.69e+010 21.258021 0.94768552 -145.89198 108.01034
1.7e+010 12.558695 0.91849705 -135.28322 15.26697
1.71e+010 13.303241 0.91233709 -122.41984 26.891262
1.72e+010 13.908882 0.90580713 -108.42317 42.239796
1.73e+010 14.237152 0.90051877 -93.562014 58.911675
1.74e+010 14.067359 0.89644269 -78.212906 69.56908
1.75e+010 13.162225 0.89308629 -62.895727 65.671988
1.76e+010 11.568332 0.89044534 -48.083964 50.2769
1.77e+010 9.6580255 0.88855834 -34.277928 34.126223
1.78e+010 8.7032681 0.89335829 -21.680502 29.865105
1.79e+010 7.9002622 0.8988141 -10.305104 26.524847
1.8e+010 7.3161981 0.90472677 -0.18913887 24.485882
1.81e+010 6.9665997 0.91123863 8.696463 23.852479
1.82e+010 6.8119959 0.9178661 16.476712 24.344288
1.83e+010 6.7299995 0.92453789 23.395882 25.379774
1.84e+010 6.7170877 0.93048792 29.464472 26.752983
1.85e+010 6.6197952 0.93539851 34.913908 27.263579
1.86e+010 6.5359497 0.94003653 39.809413 27.900013
1.87e+010 6.5444324 0.94493382 44.197679 29.605509
1.88e+010 6.5462041 0.94928395 48.14717 31.275585
1.89e+010 6.5945308 0.9535587 51.755381 33.676059
1.9e+010 6.63824 0.95741426 55.048306 36.19193
1.91e+010 6.7806255 0.9615811 58.070732 40.652508
1.92e+010 6.9487633 0.96550633 60.854722 46.226972
1.93e+010 7.1229256 0.96917108 63.420557 52.923657
1.94e+010 7.3041429 0.97258974 65.806249 61.054509
1.95e+010 7.5212281 0.97579537 68.041987 71.585228
1.96e+010 7.7380061 0.97877323 70.132106 84.546316
1.97e+010 7.944844 0.98143007 72.095451 99.93056
1.98e+010 8.1798014 0.98372599 73.953379 118.69601
1.99e+010 8.4009279 0.98566398 75.707529 139.65399
2e+010 8.6128106 0.98734127 77.36505 163.56602
